data_global
_cell_length_a 2.7061
_cell_length_b 4.41901
_cell_length_c 4.6871
_cell_angle_alpha 90
_cell_angle_beta 90
_cell_angle_gamma 90
_symmetry_space_group_name_H-M 'P -1'
_cod_database_code               9005949
loop_
_symmetry_equiv_pos_as_xyz
  'x,y,z'
loop_
_atom_site_label
_atom_site_type_symbol
_atom_site_fract_x
_atom_site_fract_y
_atom_site_fract_z
Fe1 Fe 0.75 0.75 0.916666667
Fe2 Fe 0.25 0.25 0.083333333
Al1 Al 0.25 0.75 0.416666667
Al2 Al 0.75 0.25 0.583333333